##############################################################################
#                                                                            #
# Al-Pt-Y          # Y10PtAl3                                      # 1532723 #
#                                                                            #
##############################################################################
#                                                                            #
#                           Pearson's Crystal Data                           #
#      Crystal Structure Database for Inorganic Compounds (on DVD)           #
#                              Release 2024/25                               #
#      Editors: Pierre Villars, Karin Cenzual, and Vitaliy Dubenskyy         #
#                                                                            #
#   Copyright (c) ASM International & Material Phases Data System (MPDS),    #
# Switzerland & National Institute for Materials Science (NIMS), Japan, 2024 #
#                   All rights reserved. Version 2024.07                     #
#                                                                            #
#   This copy of Pearson's Crystal Data is licensed to:                      #
#   Hunter College - City University of New York                             #
#                                                                            #
##############################################################################

data_1532723
_audit_creation_date                     2024-10-02
_audit_creation_method
;
Pearson's Crystal Data browser
;
#_database_code_PCD                      1532723
_database_code_PDF                       04-024-4065

# Entry summary

_chemical_formula_structural             'Y~10~ Pt Al~3~'
_chemical_formula_sum                    'Al3 Pt Y10'
_chemical_name_mineral                   ?
_chemical_compound_source                ?
_chemical_name_structure_type            Cd~3~Y~10~Ru,hP28,194
_chemical_formula_weight                 1165.1

# Bibliographic data

_publ_section_title
;
Ternary rare-earth aluminium intermetallics R~10~TAl~3~ (R= Y, Ho, Tm, Lu; T= Fe, Co, Ni, Ru, Rh, Pd, Os, Ir, Pt) with an ordered anti-Co~2~Al~5~ structure
;
_journal_coden_ASTM                      DTARAF
_journal_name_full                       'Dalton Trans.'
_journal_year                            2017
_journal_volume                          46
_journal_page_first                      1083
_journal_page_last                       1092
_journal_language                        English
loop_
 _publ_author_name
 _publ_author_address
'Benndorf C.'
;
Munster University (WWU)
Institut fur Anorganische und Analytische Chemie
Munster
Germany
;
'Eckert H.'
;
Munster University (WWU)
Institut fur Physikalische Chemie
Munster
Germany
;
'Janka O.'
;
Munster University (WWU)
Institut fur Anorganische und Analytische Chemie
Munster
Germany
;

# Standardized crystallographic data

_cell_length_a                           9.684
_cell_length_b                           9.684
_cell_length_c                           9.533
_cell_angle_alpha                        90
_cell_angle_beta                         90
_cell_angle_gamma                        120
_cell_volume                             774.2
_cell_formula_units_Z                    2
_space_group_IT_number                   194
_space_group_name_H-M_alt                'P 63/m m c'
loop_
 _space_group_symop_id
 _space_group_symop_operation_xyz
 1 'x, y, z'
 2 '-x+y, -x, 1/2-z'
 3 '-x+y, -x, z'
 4 '-x+y, y, 1/2-z'
 5 '-x+y, y, z'
 6 '-x, -x+y, -z'
 7 '-x, -x+y, 1/2+z'
 8 '-x, -y, -z'
 9 '-x, -y, 1/2+z'
 10 '-y, -x, 1/2-z'
 11 '-y, -x, z'
 12 '-y, x-y, 1/2-z'
 13 '-y, x-y, z'
 14 'x, x-y, 1/2-z'
 15 'x, x-y, z'
 16 'x, y, 1/2-z'
 17 'x-y, -y, -z'
 18 'x-y, -y, 1/2+z'
 19 'x-y, x, -z'
 20 'x-y, x, 1/2+z'
 21 'y, -x+y, -z'
 22 'y, -x+y, 1/2+z'
 23 'y, x, -z'
 24 'y, x, 1/2+z'

# Atomic positions taken from type-defining entry

loop_
 _atom_type_symbol
 Y
 Al
 Pt
loop_
 _atom_site_label
 _atom_site_type_symbol
 _atom_site_symmetry_multiplicity
 _atom_site_Wyckoff_symbol
 _atom_site_fract_x
 _atom_site_fract_y
 _atom_site_fract_z
 _atom_site_occupancy
 Y1 Y 12 k 0.20986 0.41972 0.0599 1
 Y2 Y 6 h 0.54133 0.08266 0.25 1
 Al1 Al 6 h 0.88632 0.77264 0.25 1
 Pt1 Pt 2 c 0.333333 0.666667 0.25 1
 Y3 Y 2 a 0 0 0 1


_exptl_crystal_colour                    gray
_exptl_crystal_density_meas              ?
_exptl_crystal_density_diffrn            5.00
_cell_measurement_temperature            ?
_cell_measurement_radiation              'X-rays, Cu Ka1'
_cell_measurement_reflns_used            ?
_diffrn_ambient_temperature              ?
_diffrn_measurement_device               'automatic diffractometer'
_diffrn_measurement_device_type          ?
_diffrn_radiation_type                   ?
_diffrn_reflns_number                    ?
_exptl_absorpt_coefficient_mu            ?
_exptl_absorpt_correction_type           ?
_computing_structure_solution            ?
_refine_ls_number_parameters             ?
_refine_ls_number_reflns                 ?
_refine_ls_R_factor_gt                   ?
_refine_ls_wR_factor_gt                  ?

# End of data set 1532723

